
Predictions were generated on 05-Dec-2019 at 21:34:24 using OpenFAST, compiled as a 64-bit application using double precision at commit v2.1.0-173-g38fc45a8-dirty
 linked with  NWTC Subroutine Library; ElastoDyn; InflowWind; AeroDyn; ServoDyn; HydroDyn; SubDyn

Description from the FAST input file: Oberhalb_45mps

Time      	RootMFlp1 	RootMFlp2 	RootMFlp3 	RootMEdg1 	RootMEdg2 	RootMEdg3 	Wave1Elev 	-ReactMXss	-ReactMYss
(s)       	(kN-m)    	(kN-m)    	(kN-m)    	(kN-m)    	(kN-m)    	(kN-m)    	(m)       	(Nm)      	(Nm)      
    0.0000	 1.136E+03	 1.380E+03	 8.353E+02	-4.454E+02	-2.235E+02	-1.158E+03	 0.000E+00	 2.737E+04	 6.687E+03
    0.0125	 1.440E+03	 1.569E+03	 1.221E+03	-5.406E+02	-3.878E+02	-1.257E+03	 0.000E+00	-2.315E+03	-6.481E+04
    0.0250	 1.572E+03	 1.778E+03	 1.268E+03	-6.248E+02	-4.643E+02	-1.322E+03	 0.000E+00	-1.234E+05	-1.722E+05
    0.0375	 6.075E+02	 8.575E+02	 7.811E+01	 1.906E+02	 4.976E+02	-5.565E+02	 0.000E+00	-2.352E+05	 9.698E+04
    0.0500	-1.691E+03	-1.453E+03	-2.142E+03	 9.551E+02	 1.557E+03	 1.224E+02	 0.000E+00	-1.020E+05	 9.020E+05
    0.0625	 2.007E+03	 2.028E+03	 1.954E+03	 4.894E+02	 1.444E+03	-4.141E+02	 0.000E+00	 5.467E+05	 1.846E+06
    0.0750	 2.538E+03	 6.669E+03	 1.079E+03	-3.612E+03	-1.719E+03	-4.107E+03	 0.000E+00	 1.704E+06	 3.414E+06
    0.0875	-1.782E+03	-4.116E+03	-1.320E+03	 1.820E+03	 2.622E+03	 2.045E+02	 0.000E+00	 2.327E+06	 5.431E+06
    0.1000	 3.453E+03	 3.304E+03	 2.357E+03	-7.283E+02	 6.292E+02	-9.483E+02	 0.000E+00	 2.138E+06	 3.878E+06
    0.1125	 2.788E+03	 2.421E+03	 1.498E+03	-1.209E+03	-1.002E+01	-6.848E+02	 0.000E+00	 2.410E+06	 3.931E+06
    0.1250	-7.022E+02	-3.389E+03	-4.400E+02	 1.229E+03	 4.606E+03	-4.768E+01	 0.000E+00	 3.710E+06	 7.952E+06
    0.1375	 4.706E+03	 4.770E+03	 3.402E+03	-1.449E+03	 8.122E+02	-1.850E+03	 0.000E+00	 4.948E+06	 1.290E+07
    0.1500	 3.361E+03	 2.822E+03	 1.580E+03	-1.393E+03	 6.247E+02	-1.227E+03	 0.000E+00	 4.474E+06	 1.805E+07
    0.1625	-7.311E+02	-2.998E+03	 2.034E+03	 2.151E+03	 5.513E+03	-1.639E+03	 0.000E+00	 1.779E+06	 2.135E+07
    0.1750	 5.262E+03	 4.509E+03	 2.327E+03	-2.273E+03	 1.654E+03	-2.281E+03	 0.000E+00	-2.148E+06	 2.033E+07
    0.1875	 3.291E+03	 2.236E+03	 8.804E+02	-3.222E+03	 6.638E+02	-3.309E+03	 0.000E+00	-6.279E+06	 2.163E+07
    0.2000	-7.927E+02	-3.631E+03	 2.100E+03	 1.197E+03	 4.994E+03	-2.193E+03	 0.000E+00	-1.071E+07	 2.563E+07
    0.2125	 4.671E+03	 3.967E+03	 2.199E+03	-3.206E+03	 9.351E+02	-2.999E+03	 0.000E+00	-1.609E+07	 2.609E+07
    0.2250	 2.333E+03	 1.066E+03	 6.383E+01	-3.717E+03	 3.394E+02	-3.493E+03	 0.000E+00	-2.221E+07	 2.516E+07
    0.2375	-1.358E+03	-4.138E+03	 1.767E+03	-2.528E+02	 3.820E+03	-2.907E+03	 0.000E+00	-2.759E+07	 2.276E+07
    0.2500	 3.749E+03	 1.711E+03	 1.913E+03	-3.888E+03	 2.345E+02	-3.247E+03	 0.000E+00	-3.073E+07	 1.777E+07
    0.2625	 1.115E+03	-4.824E+02	-8.569E+02	-4.151E+03	-5.236E+02	-3.658E+03	 0.000E+00	-3.144E+07	 1.590E+07
    0.2750	-1.984E+03	-2.617E+03	 5.527E+02	-9.654E+02	 1.617E+03	-3.167E+03	 0.000E+00	-3.049E+07	 1.611E+07
    0.2875	 2.576E+03	 9.745E+02	 6.788E+02	-4.550E+03	-6.520E+02	-3.200E+03	 0.000E+00	-2.836E+07	 1.392E+07
    0.3000	-3.382E+02	-1.314E+03	-1.773E+03	-5.887E+03	-8.604E+02	-2.496E+03	 0.000E+00	-2.483E+07	 1.068E+07
    0.3125	-5.473E+02	-3.913E+03	 8.384E+01	-3.659E+03	 1.986E+03	-3.010E+03	 0.000E+00	-1.942E+07	 7.362E+06
    0.3250	 2.496E+02	 4.960E+02	-5.482E+02	-5.345E+03	-6.163E+02	-1.495E+03	 0.000E+00	-1.264E+07	 5.874E+06
    0.3375	-1.196E+03	-1.454E+03	-2.354E+03	-6.684E+03	-5.183E+02	-2.153E+03	 0.000E+00	-5.693E+06	 8.292E+06
    0.3500	-1.641E+03	-4.553E+03	-9.219E+02	-4.287E+03	 1.547E+03	-2.698E+03	 0.000E+00	 4.759E+05	 1.095E+07
    0.3625	-4.618E+02	 7.774E+01	-1.132E+03	-5.254E+03	-2.129E+02	-7.930E+02	 0.000E+00	 6.064E+06	 1.029E+07
    0.3750	-1.474E+03	-1.025E+03	-2.499E+03	-7.233E+03	-2.025E+02	-2.175E+03	 0.000E+00	 1.180E+07	 8.001E+06
    0.3875	-2.164E+03	-5.222E+03	-1.312E+03	-4.637E+03	 1.648E+03	-1.801E+03	 0.000E+00	 1.779E+07	 5.637E+06
    0.4000	-8.099E+02	 6.468E+01	-1.043E+03	-5.227E+03	 5.429E+02	-1.074E+02	 0.000E+00	 2.345E+07	 4.310E+06
    0.4125	-1.529E+03	-2.444E+02	-2.247E+03	-7.143E+03	-4.950E+02	-2.152E+03	 0.000E+00	 2.830E+07	 4.326E+06
    0.4250	-2.564E+03	-4.832E+03	-1.108E+03	-4.531E+03	 1.976E+03	-1.100E+03	 0.000E+00	 3.249E+07	 2.583E+06
    0.4375	-7.216E+02	 6.632E+02	-7.248E+02	-4.789E+03	 4.775E+02	 1.531E+02	 0.000E+00	 3.658E+07	-2.050E+06
    0.4500	-1.367E+03	 2.691E+02	-1.786E+03	-6.976E+03	-6.177E+02	-1.701E+03	 0.000E+00	 4.053E+07	-6.275E+06
    0.4625	-2.134E+03	-4.081E+03	-4.802E+02	-4.381E+03	 1.972E+03	-2.354E+02	 0.000E+00	 4.345E+07	-8.339E+06
    0.4750	-5.647E+02	-2.640E+02	 3.879E+02	-3.859E+03	 9.576E+01	 5.062E+02	 0.000E+00	 4.444E+07	-7.622E+06
    0.4875	-1.056E+03	 2.503E+02	-1.261E+03	-5.836E+03	-2.113E+03	-1.395E+03	 0.000E+00	 4.329E+07	-5.203E+06
    0.5000	-8.847E+02	-7.763E+01	-2.637E+02	-2.762E+03	 5.979E+01	 9.866E+02	 0.000E+00	 4.045E+07	-3.934E+06
    0.5125	-9.128E+01	 4.224E+02	 8.408E+02	-3.869E+03	-6.271E+02	 8.164E+02	 0.000E+00	 3.620E+07	-3.168E+06
    0.5250	-9.022E+02	 4.834E+02	-7.832E+02	-5.347E+03	-1.536E+03	-4.078E+02	 0.000E+00	 3.021E+07	-1.328E+06
    0.5375	 2.208E+02	 9.195E+02	 4.908E+02	-1.926E+03	-2.530E+02	 1.218E+03	 0.000E+00	 2.224E+07	 3.268E+06
    0.5500	 3.186E+02	 1.018E+03	 1.115E+03	-3.396E+03	-9.650E+02	 7.479E+02	 0.000E+00	 1.287E+07	 1.023E+07
    0.5625	-5.409E+02	 9.035E+02	-6.210E+02	-3.964E+03	-1.441E+03	 2.311E+02	 0.000E+00	 3.230E+06	 1.605E+07
    0.5750	 6.447E+02	 1.651E+03	 9.345E+02	-9.110E+02	-2.101E+02	 1.199E+03	 0.000E+00	-5.765E+06	 1.895E+07
    0.5875	 4.169E+02	 1.231E+03	 1.311E+03	-2.268E+03	-6.672E+02	 4.914E+02	 0.000E+00	-1.392E+07	 2.041E+07
    0.6000	-2.233E+02	 1.517E+03	-4.702E+02	-2.423E+03	-5.422E+02	 5.877E+00	 0.000E+00	-2.141E+07	 2.232E+07
    0.6125	 4.384E+02	 1.750E+03	 1.104E+03	 3.917E+02	 1.524E+02	 7.987E+02	 0.000E+00	-2.806E+07	 2.534E+07
    0.6250	 2.217E+02	 1.524E+03	 1.012E+03	-1.393E+02	-4.523E+02	 1.344E+02	 0.000E+00	-3.336E+07	 2.816E+07
    0.6375	 2.386E+02	 1.945E+03	-2.818E+02	-5.429E+02	-8.517E+02	-3.083E+02	 0.000E+00	-3.704E+07	 2.856E+07
    0.6500	-1.831E+02	 1.644E+03	 8.153E+02	 1.903E+03	 4.551E+02	 2.680E+02	 0.000E+00	-3.947E+07	 2.668E+07
    0.6625	 9.757E+01	 1.600E+03	 6.522E+02	 1.737E+03	-7.454E+01	-7.323E+01	 0.000E+00	-4.129E+07	 2.513E+07
    0.6750	 6.281E+02	 2.080E+03	 9.225E+01	 5.278E+02	-1.327E+03	-7.049E+02	 0.000E+00	-4.274E+07	 2.569E+07
    0.6875	-6.238E+02	 1.564E+03	 3.411E+02	 3.443E+03	 4.360E+02	-3.287E+02	 0.000E+00	-4.349E+07	 2.778E+07
    0.7000	 8.219E+01	 1.719E+03	 3.692E+02	 3.206E+03	-3.188E+02	-1.502E+02	 0.000E+00	-4.319E+07	 2.945E+07
    0.7125	 7.054E+02	 2.167E+03	 3.445E+02	 1.239E+03	-1.471E+03	-1.002E+03	 0.000E+00	-4.183E+07	 2.965E+07
    0.7250	-5.717E+02	 1.528E+03	 3.442E+02	 4.679E+03	 9.226E+01	-1.102E+03	 0.000E+00	-3.964E+07	 2.906E+07
    0.7375	 2.996E+02	 1.687E+03	 5.774E+02	 3.550E+03	-5.241E+02	-9.096E+02	 0.000E+00	-3.667E+07	 2.972E+07
    0.7500	 3.621E+02	 1.935E+03	 5.418E+02	 1.709E+03	-1.520E+03	-1.807E+03	 0.000E+00	-3.254E+07	 3.189E+07
    0.7625	-3.244E+02	 1.892E+03	 9.771E+02	 5.230E+03	-3.651E+02	-2.068E+03	 0.000E+00	-2.692E+07	 3.347E+07
    0.7750	 5.022E+02	 1.953E+03	 9.185E+02	 3.606E+03	-1.325E+03	-2.363E+03	 0.000E+00	-2.010E+07	 3.299E+07
    0.7875	-9.096E+01	 1.582E+03	 3.838E+02	 2.226E+03	-1.619E+03	-2.989E+03	 0.000E+00	-1.269E+07	 3.052E+07
    0.8000	 6.939E+01	 2.205E+03	 2.175E+03	 5.100E+03	-6.429E+02	-3.064E+03	 0.000E+00	-5.230E+06	 2.731E+07
    0.8125	 4.296E+02	 2.179E+03	 1.654E+03	 3.150E+03	-2.032E+03	-3.872E+03	 0.000E+00	 2.060E+06	 2.529E+07
    0.8250	-4.791E+02	 1.133E+03	 2.507E+02	 2.541E+03	-2.233E+03	-4.065E+03	 0.000E+00	 9.179E+06	 2.399E+07
    0.8375	 2.265E+02	 2.702E+03	 3.049E+03	 4.954E+03	-7.672E+02	-3.978E+03	 0.000E+00	 1.584E+07	 2.168E+07
    0.8500	 5.145E+02	 2.528E+03	 2.166E+03	 2.679E+03	-2.777E+03	-4.844E+03	 0.000E+00	 2.150E+07	 1.835E+07
    0.8625	-7.191E+02	 7.855E+02	 3.325E+02	 2.043E+03	-2.789E+03	-4.843E+03	 0.000E+00	 2.590E+07	 1.505E+07
    0.8750	 3.629E+02	 2.609E+03	 3.407E+03	 4.501E+03	-7.345E+02	-4.135E+03	 0.000E+00	 2.917E+07	 1.318E+07
    0.8875	 6.774E+02	 2.478E+03	 2.491E+03	 1.907E+03	-2.861E+03	-4.931E+03	 0.000E+00	 3.164E+07	 1.382E+07
    0.9000	-7.496E+02	 5.995E+02	 4.461E+02	 8.551E+02	-3.332E+03	-5.140E+03	 0.000E+00	 3.341E+07	 1.558E+07
    0.9125	 3.642E+02	 2.282E+03	 3.122E+03	 4.075E+03	-6.350E+02	-3.941E+03	 0.000E+00	 3.426E+07	 1.670E+07
    0.9250	 7.102E+02	 2.179E+03	 2.547E+03	 9.825E+02	-2.359E+03	-4.445E+03	 0.000E+00	 3.396E+07	 1.760E+07
    0.9375	-8.791E+02	 5.177E+02	 6.234E+02	-6.507E+02	-3.233E+03	-5.418E+03	 0.000E+00	 3.253E+07	 1.910E+07
    0.9500	 3.585E+02	 1.580E+03	 2.787E+03	 3.218E+03	-3.534E+02	-3.399E+03	 0.000E+00	 3.010E+07	 2.183E+07
    0.9625	 7.666E+02	 1.752E+03	 2.434E+03	 2.394E+02	-1.762E+03	-3.912E+03	 0.000E+00	 2.667E+07	 2.573E+07
    0.9750	-7.350E+02	 4.100E+02	 5.233E+02	-1.644E+03	-3.133E+03	-5.203E+03	 0.000E+00	 2.199E+07	 2.877E+07
    0.9875	 2.173E+02	 1.157E+03	 2.340E+03	 2.131E+03	 8.427E+01	-2.713E+03	 0.000E+00	 1.587E+07	 3.006E+07
    1.0000	 7.399E+02	 1.360E+03	 2.227E+03	-3.748E+02	-1.062E+03	-3.314E+03	 0.000E+00	 8.526E+06	 3.096E+07
    1.0125	-2.927E+02	 1.601E+02	 3.480E+02	-2.265E+03	-2.480E+03	-4.713E+03	 0.000E+00	 4.626E+05	 3.240E+07
    1.0250	 3.123E+02	 9.731E+02	 1.993E+03	 1.132E+03	 5.957E+02	-1.998E+03	 0.000E+00	-7.824E+06	 3.468E+07
    1.0375	 9.511E+02	 1.226E+03	 1.774E+03	-8.513E+02	-6.178E+02	-2.489E+03	 0.000E+00	-1.595E+07	 3.735E+07
    1.0500	 3.044E+02	 1.001E+01	 1.780E+02	-2.695E+03	-2.001E+03	-3.534E+03	 0.000E+00	-2.365E+07	 3.900E+07
    1.0625	 8.551E+02	 1.003E+03	 1.721E+03	 3.070E+02	 1.050E+03	-1.128E+03	 0.000E+00	-3.050E+07	 3.999E+07
    1.0750	 1.571E+03	 1.026E+03	 1.449E+03	-1.489E+03	-7.631E+01	-1.617E+03	 0.000E+00	-3.592E+07	 4.186E+07
    1.0875	 1.001E+03	-5.276E+01	 1.543E+02	-3.275E+03	-1.061E+03	-2.324E+03	 0.000E+00	-3.959E+07	 4.502E+07
    1.1000	 1.774E+03	 1.097E+03	 1.546E+03	-2.871E+02	 1.442E+03	-8.717E+01	 0.000E+00	-4.157E+07	 4.898E+07
    1.1125	 2.266E+03	 9.951E+02	 1.260E+03	-2.111E+03	 3.257E+02	-4.579E+02	 0.000E+00	-4.206E+07	 5.259E+07
    1.1250	 1.806E+03	 2.541E+01	 2.676E+02	-3.768E+03	-2.021E+02	-1.108E+03	 0.000E+00	-4.133E+07	 5.497E+07
    1.1375	 2.762E+03	 1.094E+03	 1.556E+03	-5.530E+02	 1.819E+03	 1.009E+03	 0.000E+00	-3.948E+07	 5.676E+07
    1.1500	 2.905E+03	 9.836E+02	 1.357E+03	-2.526E+03	 9.225E+02	 5.316E+02	 0.000E+00	-3.662E+07	 5.878E+07
    1.1625	 2.601E+03	 2.715E+02	 5.078E+02	-3.909E+03	 4.102E+02	-2.372E+02	 0.000E+00	-3.307E+07	 6.084E+07
    1.1750	 3.415E+03	 1.202E+03	 1.559E+03	-5.568E+02	 2.223E+03	 1.981E+03	 0.000E+00	-2.916E+07	 6.222E+07
    1.1875	 3.410E+03	 1.150E+03	 1.380E+03	-2.319E+03	 1.191E+03	 1.256E+03	 0.000E+00	-2.499E+07	 6.191E+07
    1.2000	 3.329E+03	 4.981E+02	 6.834E+02	-3.674E+03	 5.066E+02	 2.982E+02	 0.000E+00	-2.053E+07	 6.014E+07
    1.2125	 3.707E+03	 1.205E+03	 1.720E+03	-4.351E+02	 2.493E+03	 2.582E+03	 0.000E+00	-1.570E+07	 5.828E+07
    1.2250	 3.631E+03	 1.158E+03	 1.532E+03	-1.907E+03	 1.150E+03	 1.578E+03	 0.000E+00	-1.051E+07	 5.675E+07
    1.2375	 3.690E+03	 5.284E+02	 7.142E+02	-3.274E+03	 1.860E+02	 6.156E+02	 0.000E+00	-5.195E+06	 5.555E+07
    1.2500	 3.713E+03	 1.247E+03	 1.790E+03	-1.190E+02	 2.215E+03	 2.636E+03	 0.000E+00	 6.197E+04	 5.439E+07
    1.2625	 3.606E+03	 1.042E+03	 1.570E+03	-1.558E+03	 5.955E+02	 1.557E+03	 0.000E+00	 5.174E+06	 5.251E+07
    1.2750	 3.420E+03	 2.846E+02	 6.887E+02	-2.950E+03	-1.967E+02	 5.266E+02	 0.000E+00	 9.956E+06	 5.086E+07
    1.2875	 3.581E+03	 1.078E+03	 1.994E+03	 6.890E+01	 1.458E+03	 2.330E+03	 0.000E+00	 1.412E+07	 5.067E+07
    1.3000	 3.420E+03	 6.852E+02	 1.657E+03	-1.404E+03	-1.855E+02	 1.075E+03	 0.000E+00	 1.728E+07	 5.127E+07
    1.3125	 2.770E+03	-2.120E+02	 5.929E+02	-2.737E+03	-7.544E+02	 1.249E+02	 0.000E+00	 1.917E+07	 5.230E+07
    1.3250	 3.240E+03	 8.394E+02	 2.084E+03	 3.978E+02	 3.913E+02	 1.627E+03	 0.000E+00	 1.977E+07	 5.330E+07
    1.3375	 2.845E+03	 2.559E+02	 1.804E+03	-1.265E+03	-9.499E+02	 3.851E+02	 0.000E+00	 1.919E+07	 5.351E+07
    1.3500	 1.870E+03	-7.171E+02	 5.302E+02	-2.512E+03	-1.362E+03	-9.075E+02	 0.000E+00	 1.755E+07	 5.392E+07
    1.3625	 2.605E+03	 4.203E+02	 2.211E+03	 8.709E+02	-6.012E+02	 6.144E+02	 0.000E+00	 1.499E+07	 5.523E+07
    1.3750	 2.181E+03	-9.064E+01	 1.907E+03	-7.592E+02	-1.797E+03	-5.133E+02	 0.000E+00	 1.171E+07	 5.645E+07
    1.3875	 1.120E+03	-1.209E+03	 4.575E+02	-2.066E+03	-2.429E+03	-2.106E+03	 0.000E+00	 8.047E+06	 5.723E+07
    1.4000	 1.709E+03	 7.762E+01	 2.206E+03	 1.564E+03	-1.366E+03	-6.076E+02	 0.000E+00	 4.368E+06	 5.761E+07
    1.4125	 1.597E+03	-2.965E+02	 2.027E+03	 4.592E+01	-2.567E+03	-1.560E+03	 0.000E+00	 8.814E+05	 5.767E+07
    1.4250	 6.601E+02	-1.637E+03	 4.519E+02	-1.558E+03	-3.537E+03	-3.499E+03	 0.000E+00	-2.367E+06	 5.843E+07
    1.4375	 8.711E+02	-1.551E+02	 2.207E+03	 2.414E+03	-1.887E+03	-1.739E+03	 0.000E+00	-5.370E+06	 6.032E+07
    1.4500	 1.257E+03	-2.921E+02	 2.171E+03	 8.544E+02	-3.208E+03	-2.411E+03	 0.000E+00	-8.101E+06	 6.248E+07
    1.4625	 4.656E+02	-1.894E+03	 6.275E+02	-1.232E+03	-4.479E+03	-4.593E+03	 0.000E+00	-1.051E+07	 6.456E+07
    1.4750	 4.823E+02	-2.769E+02	 2.269E+03	 3.310E+03	-2.127E+03	-2.530E+03	 0.000E+00	-1.258E+07	 6.684E+07
    1.4875	 1.363E+03	-2.519E+02	 2.441E+03	 1.481E+03	-3.364E+03	-3.163E+03	 0.000E+00	-1.439E+07	 6.961E+07
    1.5000	 4.935E+02	-1.913E+03	 1.003E+03	-1.014E+03	-4.682E+03	-5.393E+03	 0.000E+00	-1.597E+07	 7.310E+07
    1.5125	 6.261E+02	-2.894E+02	 2.397E+03	 4.084E+03	-2.025E+03	-2.898E+03	 0.000E+00	-1.722E+07	 7.703E+07
    1.5250	 1.808E+03	-1.628E+02	 2.681E+03	 1.930E+03	-3.207E+03	-3.572E+03	 0.000E+00	-1.795E+07	 8.060E+07
    1.5375	 8.338E+02	-1.814E+03	 1.392E+03	-6.849E+02	-4.324E+03	-5.715E+03	 0.000E+00	-1.801E+07	 8.322E+07
    1.5500	 1.098E+03	-1.463E+02	 2.742E+03	 4.762E+03	-1.652E+03	-3.061E+03	 0.000E+00	-1.735E+07	 8.520E+07
    1.5625	 2.176E+03	-8.025E+01	 2.979E+03	 2.288E+03	-2.720E+03	-3.768E+03	 0.000E+00	-1.600E+07	 8.714E+07
    1.5750	 1.314E+03	-1.621E+03	 1.676E+03	-6.847E+01	-3.533E+03	-5.560E+03	 0.000E+00	-1.399E+07	 8.873E+07
    1.5875	 1.654E+03	 2.408E+02	 3.107E+03	 5.181E+03	-1.048E+03	-3.086E+03	 0.000E+00	-1.137E+07	 8.968E+07
    1.6000	 2.502E+03	 1.805E+01	 3.008E+03	 2.695E+03	-2.218E+03	-3.635E+03	 0.000E+00	-8.279E+06	 9.001E+07
    1.6125	 1.845E+03	-1.395E+03	 1.843E+03	 7.057E+02	-2.551E+03	-4.828E+03	 0.000E+00	-4.946E+06	 8.946E+07
    1.6250	 2.163E+03	 6.508E+02	 3.396E+03	 5.117E+03	-2.218E+02	-2.822E+03	 0.000E+00	-1.650E+06	 8.869E+07
    1.6375	 2.649E+03	 6.235E+01	 2.943E+03	 2.917E+03	-1.506E+03	-3.194E+03	 0.000E+00	 1.421E+06	 8.847E+07
    1.6500	 2.350E+03	-1.138E+03	 1.931E+03	 1.333E+03	-1.365E+03	-3.730E+03	 0.000E+00	 4.152E+06	 8.827E+07
    1.6625	 2.594E+03	 9.360E+02	 3.488E+03	 4.846E+03	 5.109E+02	-2.264E+03	 0.000E+00	 6.474E+06	 8.787E+07
    1.6750	 2.739E+03	 3.150E+01	 2.751E+03	 2.776E+03	-6.194E+02	-2.408E+03	 0.000E+00	 8.352E+06	 8.749E+07
    1.6875	 2.638E+03	-8.219E+02	 2.036E+03	 1.495E+03	-5.786E+01	-2.630E+03	 0.000E+00	 9.754E+06	 8.688E+07
    1.7000	 2.890E+03	 9.255E+02	 3.458E+03	 4.196E+03	 1.137E+03	-1.395E+03	 0.000E+00	 1.071E+07	 8.655E+07
    1.7125	 2.745E+03	-9.600E+01	 2.567E+03	 2.250E+03	 3.050E+02	-1.491E+03	 0.000E+00	 1.131E+07	 8.676E+07
    1.7250	 2.762E+03	-5.764E+02	 2.075E+03	 1.047E+03	 9.768E+02	-1.662E+03	 0.000E+00	 1.161E+07	 8.675E+07
    1.7375	 3.007E+03	 7.855E+02	 3.296E+03	 3.252E+03	 1.555E+03	-4.283E+02	 0.000E+00	 1.158E+07	 8.631E+07
    1.7500	 2.565E+03	-1.607E+02	 2.447E+03	 1.393E+03	 1.015E+03	-6.277E+02	 0.000E+00	 1.116E+07	 8.557E+07
    1.7625	 2.674E+03	-4.536E+02	 2.068E+03	 1.965E+02	 1.453E+03	-1.031E+03	 0.000E+00	 1.026E+07	 8.456E+07
    1.7750	 2.891E+03	 4.746E+02	 3.116E+03	 2.090E+03	 1.823E+03	 4.047E+02	 0.000E+00	 8.818E+06	 8.389E+07
    1.7875	 2.390E+03	-1.556E+02	 2.455E+03	 3.974E+02	 1.184E+03	 4.347E+01	 0.000E+00	 6.862E+06	 8.332E+07
    1.8000	 2.469E+03	-4.471E+02	 1.983E+03	-9.705E+02	 1.185E+03	-7.027E+02	 0.000E+00	 4.371E+06	 8.261E+07
    1.8125	 2.693E+03	 6.030E+02	 2.996E+03	 9.729E+02	 1.764E+03	 1.102E+03	 0.000E+00	 1.369E+06	 8.214E+07
    1.8250	 2.318E+03	-1.564E+01	 2.641E+03	-7.110E+02	 8.617E+02	 4.036E+02	 0.000E+00	-1.987E+06	 8.174E+07
    1.8375	 2.218E+03	-5.854E+02	 1.881E+03	-2.298E+03	 4.473E+02	-7.886E+02	 0.000E+00	-5.494E+06	 8.189E+07
    1.8500	 2.511E+03	 6.199E+02	 3.037E+03	-5.399E+01	 1.541E+03	 1.570E+03	 0.000E+00	-8.883E+06	 8.317E+07
    1.8625	 2.327E+03	 2.274E+02	 2.979E+03	-1.961E+03	 2.368E+02	 5.350E+02	 0.000E+00	-1.188E+07	 8.460E+07
    1.8750	 1.901E+03	-8.085E+02	 1.796E+03	-3.738E+03	-4.756E+02	-1.068E+03	 0.000E+00	-1.433E+07	 8.626E+07
    1.8875	 2.428E+03	 6.377E+02	 3.185E+03	-9.142E+02	 1.091E+03	 1.924E+03	 0.000E+00	-1.608E+07	 8.871E+07
    1.9000	 2.399E+03	 4.264E+02	 3.363E+03	-3.094E+03	-4.830E+02	 4.339E+02	 0.000E+00	-1.701E+07	 9.088E+07
    1.9125	 1.467E+03	-9.462E+02	 1.712E+03	-4.926E+03	-1.155E+03	-1.421E+03	 0.000E+00	-1.713E+07	 9.334E+07
    1.9250	 2.395E+03	 6.304E+02	 3.286E+03	-1.491E+03	 5.126E+02	 2.178E+03	 0.000E+00	-1.645E+07	 9.646E+07
    1.9375	 2.479E+03	 5.285E+02	 3.638E+03	-3.819E+03	-1.234E+03	 3.331E+02	 0.000E+00	-1.509E+07	 9.858E+07
    1.9500	 1.187E+03	-1.217E+03	 1.736E+03	-5.676E+03	-2.085E+03	-1.663E+03	 0.000E+00	-1.321E+07	 1.002E+08
    1.9625	 2.318E+03	 6.229E+02	 3.278E+03	-1.616E+03	-7.688E+01	 2.289E+03	 0.000E+00	-1.090E+07	 1.022E+08
    1.9750	 2.502E+03	 5.580E+02	 3.685E+03	-3.858E+03	-1.881E+03	 2.654E+02	 0.000E+00	-8.244E+06	 1.031E+08
    1.9875	 1.047E+03	-1.311E+03	 1.681E+03	-5.698E+03	-2.767E+03	-1.665E+03	 0.000E+00	-5.358E+06	 1.039E+08
    2.0000	 2.131E+03	 5.341E+02	 3.094E+03	-1.225E+03	-5.713E+02	 2.183E+03	 0.000E+00	-2.282E+06	 1.051E+08
    2.0125	 2.498E+03	 5.227E+02	 3.405E+03	-3.162E+03	-2.428E+03	 2.794E+02	 0.000E+00	 9.463E+05	 1.050E+08
    2.0250	 1.044E+03	-1.303E+03	 1.577E+03	-4.981E+03	-3.201E+03	-1.377E+03	 0.000E+00	 4.294E+06	 1.047E+08
    2.0375	 1.892E+03	 8.097E+02	 2.855E+03	-4.529E+02	-1.090E+03	 2.025E+03	 0.000E+00	 7.769E+06	 1.052E+08
    2.0500	 2.380E+03	 4.219E+02	 2.958E+03	-2.044E+03	-2.748E+03	 3.183E+02	 0.000E+00	 1.129E+07	 1.050E+08
    2.0625	 1.098E+03	-1.220E+03	 1.443E+03	-3.763E+03	-3.228E+03	-9.825E+02	 0.000E+00	 1.474E+07	 1.050E+08
    2.0750	 1.722E+03	 9.237E+02	 2.560E+03	 4.516E+02	-1.469E+03	 1.778E+03	 0.000E+00	 1.799E+07	 1.055E+08
    2.0875	 2.122E+03	 2.727E+02	 2.480E+03	-7.904E+02	-2.783E+03	 3.698E+02	 0.000E+00	 2.089E+07	 1.052E+08
    2.1000	 1.097E+03	-9.988E+02	 1.339E+03	-2.260E+03	-2.854E+03	-6.909E+02	 0.000E+00	 2.331E+07	 1.048E+08
    2.1125	 1.629E+03	 1.018E+03	 2.358E+03	 1.469E+03	-1.757E+03	 1.487E+03	 0.000E+00	 2.512E+07	 1.048E+08
    2.1250	 1.810E+03	 1.525E+02	 2.106E+03	 4.885E+02	-2.598E+03	 3.397E+02	 0.000E+00	 2.616E+07	 1.042E+08
    2.1375	 1.135E+03	-6.956E+02	 1.304E+03	-6.986E+02	-2.339E+03	-5.609E+02	 0.000E+00	 2.638E+07	 1.034E+08
    2.1500	 1.544E+03	 1.184E+03	 2.258E+03	 2.580E+03	-1.905E+03	 1.122E+03	 0.000E+00	 2.579E+07	 1.024E+08
    2.1625	 1.595E+03	 1.587E+02	 1.938E+03	 1.710E+03	-2.390E+03	 1.627E+02	 0.000E+00	 2.442E+07	 1.008E+08
    2.1750	 1.217E+03	-3.240E+02	 1.367E+03	 6.883E+02	-1.975E+03	-7.265E+02	 0.000E+00	 2.241E+07	 9.920E+07
    2.1875	 1.454E+03	 1.483E+03	 2.367E+03	 3.686E+03	-1.865E+03	 6.655E+02	 0.000E+00	 1.986E+07	 9.761E+07
    2.2000	 1.569E+03	 3.990E+02	 1.998E+03	 2.768E+03	-2.323E+03	-2.410E+02	 0.000E+00	 1.686E+07	 9.614E+07
    2.2125	 1.296E+03	 4.644E+01	 1.568E+03	 1.737E+03	-1.936E+03	-1.135E+03	 0.000E+00	 1.360E+07	 9.474E+07
    2.2250	 1.369E+03	 1.885E+03	 2.614E+03	 4.628E+03	-1.640E+03	 1.529E+02	 0.000E+00	 1.020E+07	 9.334E+07
    2.2375	 1.632E+03	 7.892E+02	 2.267E+03	 3.544E+03	-2.326E+03	-8.286E+02	 0.000E+00	 6.799E+06	 9.248E+07
    2.2500	 1.313E+03	 3.644E+02	 1.891E+03	 2.275E+03	-2.074E+03	-1.856E+03	 0.000E+00	 3.473E+06	 9.206E+07
    2.2625	 1.332E+03	 2.198E+03	 2.959E+03	 5.231E+03	-1.257E+03	-3.336E+02	 0.000E+00	 2.621E+05	 9.189E+07
    2.2750	 1.756E+03	 1.192E+03	 2.752E+03	 3.840E+03	-2.262E+03	-1.537E+03	 0.000E+00	-2.773E+06	 9.247E+07
    2.2875	 1.238E+03	 5.789E+02	 2.276E+03	 2.229E+03	-2.216E+03	-2.788E+03	 0.000E+00	-5.549E+06	 9.313E+07
    2.3000	 1.391E+03	 2.324E+03	 3.404E+03	 5.464E+03	-8.672E+02	-7.018E+02	 0.000E+00	-8.037E+06	 9.360E+07
    2.3125	 1.903E+03	 1.456E+03	 3.381E+03	 3.654E+03	-2.080E+03	-2.286E+03	 0.000E+00	-1.017E+07	 9.465E+07
    2.3250	 1.065E+03	 6.544E+02	 2.623E+03	 1.746E+03	-2.187E+03	-3.760E+03	 0.000E+00	-1.188E+07	 9.557E+07
    2.3375	 1.539E+03	 2.252E+03	 3.807E+03	 5.303E+03	-4.694E+02	-1.012E+03	 0.000E+00	-1.309E+07	 9.609E+07
    2.3500	 2.070E+03	 1.466E+03	 3.870E+03	 3.147E+03	-1.899E+03	-2.847E+03	 0.000E+00	-1.363E+07	 9.690E+07
    2.3625	 8.878E+02	 4.922E+02	 2.810E+03	 1.067E+03	-2.062E+03	-4.414E+03	 0.000E+00	-1.342E+07	 9.717E+07
    2.3750	 1.655E+03	 2.008E+03	 4.007E+03	 4.828E+03	-1.343E+02	-1.313E+03	 0.000E+00	-1.247E+07	 9.695E+07
    2.3875	 2.133E+03	 1.302E+03	 4.008E+03	 2.504E+03	-1.695E+03	-3.189E+03	 0.000E+00	-1.076E+07	 9.713E+07
    2.4000	 7.620E+02	 7.729E+01	 2.785E+03	 3.848E+02	-1.933E+03	-4.610E+03	 0.000E+00	-8.381E+06	 9.705E+07
    2.4125	 1.710E+03	 1.737E+03	 3.905E+03	 4.110E+03	 8.451E+01	-1.531E+03	 0.000E+00	-5.413E+06	 9.679E+07
    2.4250	 2.081E+03	 9.893E+02	 3.758E+03	 1.839E+03	-1.478E+03	-3.215E+03	 0.000E+00	-1.905E+06	 9.690E+07
    2.4375	 7.172E+02	-4.197E+02	 2.521E+03	-2.143E+02	-1.616E+03	-4.368E+03	 0.000E+00	 1.973E+06	 9.676E+07
    2.4500	 1.687E+03	 1.319E+03	 3.527E+03	 3.128E+03	 3.681E+02	-1.602E+03	 0.000E+00	 6.018E+06	 9.663E+07
    2.4625	 1.955E+03	 4.879E+02	 3.266E+03	 1.196E+03	-1.131E+03	-2.903E+03	 0.000E+00	 1.014E+07	 9.690E+07
    2.4750	 7.902E+02	-8.664E+02	 2.084E+03	-7.864E+02	-1.107E+03	-3.833E+03	 0.000E+00	 1.423E+07	 9.698E+07
    2.4875	 1.681E+03	 7.808E+02	 2.967E+03	 2.045E+03	 6.071E+02	-1.380E+03	 0.000E+00	 1.818E+07	 9.693E+07
    2.5000	 1.853E+03	-5.743E-01	 2.629E+03	 4.759E+02	-6.257E+02	-2.312E+03	 0.000E+00	 2.195E+07	 9.679E+07
    2.5125	 9.421E+02	-1.158E+03	 1.589E+03	-1.423E+03	-5.551E+02	-3.126E+03	 0.000E+00	 2.543E+07	 9.626E+07
    2.5250	 1.775E+03	 3.355E+02	 2.388E+03	 9.869E+02	 7.081E+02	-8.063E+02	 0.000E+00	 2.849E+07	 9.558E+07
    2.5375	 1.858E+03	-4.127E+02	 2.050E+03	-2.542E+02	-2.027E+02	-1.512E+03	 0.000E+00	 3.114E+07	 9.469E+07
    2.5500	 1.149E+03	-1.272E+03	 1.133E+03	-2.104E+03	-1.549E+02	-2.358E+03	 0.000E+00	 3.328E+07	 9.341E+07
    2.5625	 1.982E+03	 1.069E+02	 1.878E+03	 1.202E+02	 7.126E+02	-7.822E+01	 0.000E+00	 3.481E+07	 9.197E+07
    2.5750	 2.007E+03	-5.649E+02	 1.607E+03	-9.181E+02	-4.947E+01	-6.491E+02	 0.000E+00	 3.564E+07	 9.024E+07
    2.5875	 1.427E+03	-1.208E+03	 7.678E+02	-2.769E+03	-6.164E+01	-1.563E+03	 0.000E+00	 3.568E+07	 8.847E+07
    2.6000	 2.268E+03	 2.099E+02	 1.541E+03	-5.379E+02	 6.747E+02	 7.520E+02	 0.000E+00	 3.488E+07	 8.697E+07
    2.6125	 2.287E+03	-3.787E+02	 1.392E+03	-1.483E+03	-2.055E+02	 1.541E+02	 0.000E+00	 3.328E+07	 8.530E+07
    2.6250	 1.718E+03	-9.740E+02	 5.870E+02	-3.336E+03	-3.212E+02	-8.357E+02	 0.000E+00	 3.092E+07	 8.381E+07
    2.6375	 2.584E+03	 5.941E+02	 1.405E+03	-9.344E+02	 5.863E+02	 1.628E+03	 0.000E+00	 2.786E+07	 8.273E+07
    2.6500	 2.678E+03	 7.166E+01	 1.347E+03	-1.907E+03	-5.204E+02	 7.983E+02	 0.000E+00	 2.422E+07	 8.151E+07
    2.6625	 1.942E+03	-6.063E+02	 6.279E+02	-3.770E+03	-7.676E+02	-2.219E+02	 0.000E+00	 2.018E+07	 8.068E+07
    2.6750	 2.892E+03	 1.092E+03	 1.421E+03	-1.101E+03	 3.932E+02	 2.557E+03	 0.000E+00	 1.595E+07	 8.029E+07
    2.6875	 3.037E+03	 5.926E+02	 1.593E+03	-2.213E+03	-9.474E+02	 1.317E+03	 0.000E+00	 1.171E+07	 7.948E+07
    2.7000	 2.071E+03	-1.924E+02	 8.359E+02	-4.090E+03	-1.239E+03	 1.561E+02	 0.000E+00	 7.602E+06	 7.887E+07
    2.7125	 3.150E+03	 1.551E+03	 1.640E+03	-1.027E+03	 1.230E+02	 3.371E+03	 0.000E+00	 3.761E+06	 7.863E+07
    2.7250	 3.334E+03	 1.041E+03	 2.007E+03	-2.346E+03	-1.418E+03	 1.688E+03	 0.000E+00	 2.610E+05	 7.793E+07
    2.7375	 2.071E+03	 1.803E+02	 1.160E+03	-4.237E+03	-1.669E+03	 4.086E+02	 0.000E+00	-2.787E+06	 7.746E+07
    2.7500	 3.298E+03	 1.885E+03	 1.919E+03	-7.163E+02	-2.355E+02	 3.979E+03	 0.000E+00	-5.329E+06	 7.730E+07
    2.7625	 3.446E+03	 1.312E+03	 2.397E+03	-2.187E+03	-1.868E+03	 1.991E+03	 0.000E+00	-7.396E+06	 7.656E+07
    2.7750	 2.005E+03	 3.868E+02	 1.541E+03	-3.995E+03	-2.025E+03	 6.057E+02	 0.000E+00	-8.965E+06	 7.608E+07
    2.7875	 3.181E+03	 1.873E+03	 2.115E+03	-1.972E+02	-5.467E+02	 4.202E+03	 0.000E+00	-9.993E+06	 7.610E+07
    2.8000	 3.285E+03	 1.386E+03	 2.614E+03	-1.655E+03	-2.198E+03	 2.188E+03	 0.000E+00	-1.046E+07	 7.564E+07
    2.8125	 1.921E+03	 3.774E+02	 1.880E+03	-3.347E+03	-2.336E+03	 7.204E+02	 0.000E+00	-1.031E+07	 7.545E+07
    2.8250	 2.864E+03	 1.832E+03	 2.238E+03	 5.328E+02	-9.466E+02	 4.088E+03	 0.000E+00	-9.496E+06	 7.566E+07
    2.8375	 2.940E+03	 1.157E+03	 2.706E+03	-8.306E+02	-2.434E+03	 2.225E+03	 0.000E+00	-8.054E+06	 7.535E+07
    2.8500	 1.804E+03	 2.052E+02	 2.058E+03	-2.375E+03	-2.443E+03	 6.806E+02	 0.000E+00	-5.951E+06	 7.522E+07
    2.8625	 2.462E+03	 1.579E+03	 2.305E+03	 1.291E+03	-1.286E+03	 3.583E+03	 0.000E+00	-3.198E+06	 7.532E+07
    2.8750	 2.614E+03	 6.800E+02	 2.633E+03	 1.239E+02	-2.609E+03	 1.998E+03	 0.000E+00	 1.049E+05	 7.484E+07
    2.8875	 1.627E+03	-1.314E+02	 2.122E+03	-1.344E+03	-2.351E+03	 5.165E+02	 0.000E+00	 3.857E+06	 7.428E+07
    2.9000	 2.177E+03	 1.350E+03	 2.314E+03	 1.984E+03	-1.644E+03	 2.860E+03	 0.000E+00	 7.889E+06	 7.363E+07
    2.9125	 2.317E+03	 1.621E+02	 2.429E+03	 9.791E+02	-2.648E+03	 1.491E+03	 0.000E+00	 1.200E+07	 7.245E+07
    2.9250	 1.449E+03	-5.646E+02	 2.092E+03	-3.866E+02	-2.140E+03	 1.839E+02	 0.000E+00	 1.607E+07	 7.112E+07
    2.9375	 1.993E+03	 9.483E+02	 2.261E+03	 2.582E+03	-1.898E+03	 1.965E+03	 0.000E+00	 1.992E+07	 6.967E+07
    2.9500	 2.177E+03	-3.717E+02	 2.234E+03	 1.697E+03	-2.636E+03	 7.783E+02	 0.000E+00	 2.341E+07	 6.796E+07
    2.9625	 1.317E+03	-9.586E+02	 1.997E+03	 3.397E+02	-1.925E+03	-3.757E+02	 0.000E+00	 2.644E+07	 6.618E+07
    2.9750	 1.943E+03	 5.886E+02	 2.183E+03	 3.077E+03	-1.972E+03	 9.895E+02	 0.000E+00	 2.893E+07	 6.425E+07
    2.9875	 2.222E+03	-7.018E+02	 2.110E+03	 2.225E+03	-2.598E+03	-1.406E+02	 0.000E+00	 3.083E+07	 6.240E+07
    3.0000	 1.402E+03	-1.332E+03	 1.838E+03	 9.977E+02	-1.867E+03	-1.222E+03	 0.000E+00	 3.215E+07	 6.065E+07
    3.0125	 1.956E+03	 4.277E+02	 2.164E+03	 3.481E+03	-1.869E+03	 3.412E+01	 0.000E+00	 3.288E+07	 5.882E+07
    3.0250	 2.342E+03	-7.095E+02	 2.096E+03	 2.538E+03	-2.533E+03	-1.177E+03	 0.000E+00	 3.301E+07	 5.743E+07
    3.0375	 1.341E+03	-1.428E+03	 1.744E+03	 8.571E+02	-2.058E+03	-2.320E+03	 0.000E+00	 3.258E+07	 5.603E+07
    3.0500	 2.006E+03	 4.331E+02	 2.233E+03	 3.737E+03	-1.547E+03	-8.546E+02	 0.000E+00	 3.158E+07	 5.433E+07
    3.0625	 2.516E+03	-4.863E+02	 2.230E+03	 2.598E+03	-2.427E+03	-2.202E+03	 0.000E+00	 3.003E+07	 5.317E+07
    3.0750	 1.480E+03	-1.475E+03	 1.618E+03	 8.890E+02	-2.189E+03	-3.508E+03	 0.000E+00	 2.796E+07	 5.195E+07
    3.0875	 2.072E+03	 5.096E+02	 2.362E+03	 3.823E+03	-1.072E+03	-1.560E+03	 0.000E+00	 2.538E+07	 5.032E+07
    3.1000	 2.715E+03	-1.719E+02	 2.452E+03	 2.408E+03	-2.198E+03	-3.048E+03	 0.000E+00	 2.237E+07	 4.929E+07
    3.1125	 1.618E+03	-1.439E+03	 1.597E+03	 1.023E+03	-2.162E+03	-4.495E+03	 0.000E+00	 1.901E+07	 4.811E+07
    3.1250	 2.158E+03	 6.172E+02	 2.487E+03	 3.750E+03	-5.523E+02	-1.974E+03	 0.000E+00	 1.540E+07	 4.632E+07
    3.1375	 2.870E+03	 1.238E+02	 2.684E+03	 2.056E+03	-1.834E+03	-3.579E+03	 0.000E+00	 1.168E+07	 4.525E+07
    3.1500	 1.438E+03	-1.159E+03	 1.744E+03	-9.988E+01	-2.069E+03	-5.070E+03	 0.000E+00	 7.986E+06	 4.407E+07
    3.1625	 2.215E+03	 6.883E+02	 2.575E+03	 3.507E+03	-2.553E+01	-2.079E+03	 0.000E+00	 4.438E+06	 4.255E+07
    3.1750	 2.905E+03	 2.947E+02	 2.861E+03	 1.670E+03	-1.382E+03	-3.700E+03	 0.000E+00	 1.207E+06	 4.181E+07
    3.1875	 1.513E+03	-1.055E+03	 1.855E+03	-1.717E+02	-1.572E+03	-5.165E+03	 0.000E+00	-1.595E+06	 4.105E+07
    3.2000	 2.191E+03	 6.996E+02	 2.687E+03	 3.152E+03	 5.137E+02	-1.968E+03	 0.000E+00	-3.912E+06	 4.008E+07
    3.2125	 2.759E+03	 3.046E+02	 2.966E+03	 1.345E+03	-8.806E+02	-3.391E+03	 0.000E+00	-5.652E+06	 3.999E+07
    3.2250	 1.364E+03	-8.624E+02	 2.078E+03	-5.765E+02	-9.726E+02	-4.702E+03	 0.000E+00	-6.790E+06	 3.994E+07
    3.2375	 2.085E+03	 6.094E+02	 2.780E+03	 2.684E+03	 9.726E+02	-1.566E+03	 0.000E+00	-7.334E+06	 3.972E+07
    3.2500	 2.505E+03	 1.514E+02	 3.008E+03	 1.080E+03	-3.539E+02	-2.718E+03	 0.000E+00	-7.250E+06	 3.997E+07
    3.2625	 1.277E+03	-7.796E+02	 2.350E+03	-6.259E+02	-2.804E+02	-3.806E+03	 0.000E+00	-6.584E+06	 4.003E+07
    3.2750	 1.969E+03	 4.703E+02	 2.828E+03	 2.136E+03	 1.290E+03	-8.668E+02	 0.000E+00	-5.419E+06	 3.998E+07
    3.2875	 2.206E+03	-1.150E+02	 2.980E+03	 8.211E+02	 1.595E+02	-1.743E+03	 0.000E+00	-3.762E+06	 4.010E+07
    3.3000	 1.470E+03	-8.828E+02	 2.546E+03	-2.868E+02	 4.461E+02	-2.625E+03	 0.000E+00	-1.679E+06	 3.988E+07